ITEM: TIMESTEP
100
ITEM: NUMBER OF ATOMS
3
ITEM: BOX BOUNDS pp pp pp
0.0000000000000000e+00 6.7183847655300291e+00
0.0000000000000000e+00 6.7183847655300291e+00
0.0000000000000000e+00 6.7183847655300291e+00
ITEM: ATOMS id type xs ys zs
3 1 0.983851 0.587133 0.117928
2 1 0.175886 0.376939 0.422792
1 1 0.297763 0.630928 0.719281
ITEM: TIMESTEP
110
ITEM: NUMBER OF ATOMS
3
ITEM: BOX BOUNDS pp pp pp
0.0000000000000000e+00 6.7183847655300291e+00
0.0000000000000000e+00 6.7183847655300291e+00
0.0000000000000000e+00 6.7183847655300291e+00
ITEM: ATOMS id type xs ys zs
3 1 0.990736 0.581096 0.10747
2 1 0.177224 0.387883 0.425071
1 1 0.28954 0.626021 0.727459
ITEM: TIMESTEP
120
ITEM: NUMBER OF ATOMS
3
ITEM: BOX BOUNDS pp pp pp
0.0000000000000000e+00 6.7183847655300291e+00
0.0000000000000000e+00 6.7183847655300291e+00
0.0000000000000000e+00 6.7183847655300291e+00
ITEM: ATOMS id type xs ys zs
3 1 0.997621 0.575059 0.0970132
2 1 0.178563 0.398827 0.42735
1 1 0.281316 0.621114 0.735637
ITEM: TIMESTEP
130
ITEM: NUMBER OF ATOMS
3
ITEM: BOX BOUNDS pp pp pp
0.0000000000000000e+00 6.7183847655300291e+00
0.0000000000000000e+00 6.7183847655300291e+00
0.0000000000000000e+00 6.7183847655300291e+00
ITEM: ATOMS id type xs ys zs
3 1 1.00451 0.569022 0.0865559
2 1 0.179901 0.409771 0.429629
1 1 0.273092 0.616207 0.743815
ITEM: TIMESTEP
140
ITEM: NUMBER OF ATOMS
3
ITEM: BOX BOUNDS pp pp pp
0.0000000000000000e+00 6.7183847655300291e+00
0.0000000000000000e+00 6.7183847655300291e+00
0.0000000000000000e+00 6.7183847655300291e+00
ITEM: ATOMS id type xs ys zs
3 1 0.0113917 0.562986 0.0760987
2 1 0.18124 0.420715 0.431908
1 1 0.264869 0.6113 0.751993
ITEM: TIMESTEP
150
ITEM: NUMBER OF ATOMS
3
ITEM: BOX BOUNDS pp pp pp
0.0000000000000000e+00 6.7183847655300291e+00
0.0000000000000000e+00 6.7183847655300291e+00
0.0000000000000000e+00 6.7183847655300291e+00
ITEM: ATOMS id type xs ys zs
3 1 0.0182768 0.556949 0.0656415
2 1 0.182578 0.431659 0.434187
1 1 0.256645 0.606393 0.760171
ITEM: TIMESTEP
160
ITEM: NUMBER OF ATOMS
3
ITEM: BOX BOUNDS pp pp pp
0.0000000000000000e+00 6.7183847655300291e+00
0.0000000000000000e+00 6.7183847655300291e+00
0.0000000000000000e+00 6.7183847655300291e+00
ITEM: ATOMS id type xs ys zs
3 1 0.0251622 0.550912 0.0551839
2 1 0.183917 0.442602 0.436467
1 1 0.248421 0.601485 0.76835
ITEM: TIMESTEP
170
ITEM: NUMBER OF ATOMS
3
ITEM: BOX BOUNDS pp pp pp
0.0000000000000000e+00 6.7183847655300291e+00
0.0000000000000000e+00 6.7183847655300291e+00
0.0000000000000000e+00 6.7183847655300291e+00
ITEM: ATOMS id type xs ys zs
3 1 0.0320553 0.544877 0.0447164
2 1 0.185256 0.453547 0.438747
1 1 0.240189 0.596576 0.776537
ITEM: TIMESTEP
180
ITEM: NUMBER OF ATOMS
3
ITEM: BOX BOUNDS pp pp pp
0.0000000000000000e+00 6.7183847655300291e+00
0.0000000000000000e+00 6.7183847655300291e+00
0.0000000000000000e+00 6.7183847655300291e+00
ITEM: ATOMS id type xs ys zs
3 1 0.0389641 0.538846 0.0342287
2 1 0.186596 0.464496 0.441039
1 1 0.23194 0.591657 0.784732
ITEM: TIMESTEP
190
ITEM: NUMBER OF ATOMS
3
ITEM: BOX BOUNDS pp pp pp
0.0000000000000000e+00 6.7183847655300291e+00
0.0000000000000000e+00 6.7183847655300291e+00
0.0000000000000000e+00 6.7183847655300291e+00
ITEM: ATOMS id type xs ys zs
3 1 0.0458985 0.532822 0.0237079
2 1 0.187939 0.475451 0.443345
1 1 0.223663 0.586727 0.792947
ITEM: TIMESTEP
200
ITEM: NUMBER OF ATOMS
3
ITEM: BOX BOUNDS pp pp pp
0.0000000000000000e+00 6.7183847655300291e+00
0.0000000000000000e+00 6.7183847655300291e+00
0.0000000000000000e+00 6.7183847655300291e+00
ITEM: ATOMS id type xs ys zs
3 1 0.0528759 0.526812 0.0131312
2 1 0.189283 0.48641 0.445666
1 1 0.215341 0.581778 0.801203
