ITEM: TIMESTEP
100
ITEM: NUMBER OF ATOMS
3
ITEM: BOX BOUNDS pp pp pp
0.0000000000000000e+00 6.7183847655300291e+00
0.0000000000000000e+00 6.7183847655300291e+00
0.0000000000000000e+00 6.7183847655300291e+00
ITEM: ATOMS id type xs ys zs
1 1 0.0732845 0.96664 0.223902
2 1 0.419976 0.576793 0.265215
3 1 0.0992391 0.314067 0.523383
ITEM: TIMESTEP
110
ITEM: NUMBER OF ATOMS
3
ITEM: BOX BOUNDS pp pp pp
0.0000000000000000e+00 6.7183847655300291e+00
0.0000000000000000e+00 6.7183847655300291e+00
0.0000000000000000e+00 6.7183847655300291e+00
ITEM: ATOMS id type xs ys zs
1 1 0.0706173 0.9768 0.229043
2 1 0.42797 0.569726 0.271986
3 1 0.093913 0.310974 0.511472
ITEM: TIMESTEP
120
ITEM: NUMBER OF ATOMS
3
ITEM: BOX BOUNDS pp pp pp
0.0000000000000000e+00 6.7183847655300291e+00
0.0000000000000000e+00 6.7183847655300291e+00
0.0000000000000000e+00 6.7183847655300291e+00
ITEM: ATOMS id type xs ys zs
1 1 0.0679501 0.986959 0.234183
2 1 0.435963 0.56266 0.278757
3 1 0.0885869 0.307881 0.49956
ITEM: TIMESTEP
130
ITEM: NUMBER OF ATOMS
3
ITEM: BOX BOUNDS pp pp pp
0.0000000000000000e+00 6.7183847655300291e+00
0.0000000000000000e+00 6.7183847655300291e+00
0.0000000000000000e+00 6.7183847655300291e+00
ITEM: ATOMS id type xs ys zs
1 1 0.0652829 0.997119 0.239324
2 1 0.443956 0.555593 0.285528
3 1 0.0832608 0.304788 0.487648
ITEM: TIMESTEP
140
ITEM: NUMBER OF ATOMS
3
ITEM: BOX BOUNDS pp pp pp
0.0000000000000000e+00 6.7183847655300291e+00
0.0000000000000000e+00 6.7183847655300291e+00
0.0000000000000000e+00 6.7183847655300291e+00
ITEM: ATOMS id type xs ys zs
1 1 0.0626156 0.00727911 0.244465
2 1 0.45195 0.548527 0.292299
3 1 0.0779347 0.301694 0.475737
ITEM: TIMESTEP
150
ITEM: NUMBER OF ATOMS
3
ITEM: BOX BOUNDS pp pp pp
0.0000000000000000e+00 6.7183847655300291e+00
0.0000000000000000e+00 6.7183847655300291e+00
0.0000000000000000e+00 6.7183847655300291e+00
ITEM: ATOMS id type xs ys zs
1 1 0.0599486 0.0174436 0.249609
2 1 0.459943 0.54146 0.29907
3 1 0.0726084 0.298596 0.463821
ITEM: TIMESTEP
160
ITEM: NUMBER OF ATOMS
3
ITEM: BOX BOUNDS pp pp pp
0.0000000000000000e+00 6.7183847655300291e+00
0.0000000000000000e+00 6.7183847655300291e+00
0.0000000000000000e+00 6.7183847655300291e+00
ITEM: ATOMS id type xs ys zs
1 1 0.0572824 0.0276248 0.254766
2 1 0.467936 0.534393 0.305841
3 1 0.0672813 0.295482 0.451893
ITEM: TIMESTEP
170
ITEM: NUMBER OF ATOMS
3
ITEM: BOX BOUNDS pp pp pp
0.0000000000000000e+00 6.7183847655300291e+00
0.0000000000000000e+00 6.7183847655300291e+00
0.0000000000000000e+00 6.7183847655300291e+00
ITEM: ATOMS id type xs ys zs
1 1 0.0546171 0.0378317 0.259942
2 1 0.47593 0.527327 0.312612
3 1 0.0619533 0.292342 0.439947
ITEM: TIMESTEP
180
ITEM: NUMBER OF ATOMS
3
ITEM: BOX BOUNDS pp pp pp
0.0000000000000000e+00 6.7183847655300291e+00
0.0000000000000000e+00 6.7183847655300291e+00
0.0000000000000000e+00 6.7183847655300291e+00
ITEM: ATOMS id type xs ys zs
1 1 0.0519529 0.0480797 0.265146
2 1 0.483923 0.52026 0.319383
3 1 0.0566241 0.28916 0.427971
ITEM: TIMESTEP
190
ITEM: NUMBER OF ATOMS
3
ITEM: BOX BOUNDS pp pp pp
0.0000000000000000e+00 6.7183847655300291e+00
0.0000000000000000e+00 6.7183847655300291e+00
0.0000000000000000e+00 6.7183847655300291e+00
ITEM: ATOMS id type xs ys zs
1 1 0.04929 0.0583947 0.270396
2 1 0.491916 0.513193 0.326154
3 1 0.0512937 0.285912 0.41595
ITEM: TIMESTEP
200
ITEM: NUMBER OF ATOMS
3
ITEM: BOX BOUNDS pp pp pp
0.0000000000000000e+00 6.7183847655300291e+00
0.0000000000000000e+00 6.7183847655300291e+00
0.0000000000000000e+00 6.7183847655300291e+00
ITEM: ATOMS id type xs ys zs
1 1 0.0466279 0.0688221 0.275717
2 1 0.49991 0.506127 0.332925
3 1 0.0459625 0.282551 0.403858
ITEM: TIMESTEP
210
ITEM: NUMBER OF ATOMS
3
ITEM: BOX BOUNDS pp pp pp
0.0000000000000000e+00 6.7183847655300291e+00
0.0000000000000000e+00 6.7183847655300291e+00
0.0000000000000000e+00 6.7183847655300291e+00
ITEM: ATOMS id type xs ys zs
1 1 0.043965 0.0794436 0.281154
2 1 0.507903 0.49906 0.339696
3 1 0.0406321 0.278996 0.39165
ITEM: TIMESTEP
220
ITEM: NUMBER OF ATOMS
3
ITEM: BOX BOUNDS pp pp pp
0.0000000000000000e+00 6.7183847655300291e+00
0.0000000000000000e+00 6.7183847655300291e+00
0.0000000000000000e+00 6.7183847655300291e+00
ITEM: ATOMS id type xs ys zs
1 1 0.0412959 0.0904064 0.286778
2 1 0.515896 0.491994 0.346467
3 1 0.0353079 0.2751 0.379255
ITEM: TIMESTEP
230
ITEM: NUMBER OF ATOMS
3
ITEM: BOX BOUNDS pp pp pp
0.0000000000000000e+00 6.7183847655300291e+00
0.0000000000000000e+00 6.7183847655300291e+00
0.0000000000000000e+00 6.7183847655300291e+00
ITEM: ATOMS id type xs ys zs
1 1 0.0386069 0.101951 0.292691
2 1 0.52389 0.484927 0.353238
3 1 0.0300035 0.270622 0.366571
ITEM: TIMESTEP
240
ITEM: NUMBER OF ATOMS
3
ITEM: BOX BOUNDS pp pp pp
0.0000000000000000e+00 6.7183847655300291e+00
0.0000000000000000e+00 6.7183847655300291e+00
0.0000000000000000e+00 6.7183847655300291e+00
ITEM: ATOMS id type xs ys zs
1 1 0.0358841 0.114179 0.298905
2 1 0.531883 0.47786 0.360009
3 1 0.0247331 0.26546 0.353586
ITEM: TIMESTEP
250
ITEM: NUMBER OF ATOMS
3
ITEM: BOX BOUNDS pp pp pp
0.0000000000000000e+00 6.7183847655300291e+00
0.0000000000000000e+00 6.7183847655300291e+00
0.0000000000000000e+00 6.7183847655300291e+00
ITEM: ATOMS id type xs ys zs
1 1 0.0333688 0.124041 0.304377
2 1 0.539876 0.470794 0.36678
3 1 0.019255 0.262665 0.341344
ITEM: TIMESTEP
260
ITEM: NUMBER OF ATOMS
3
ITEM: BOX BOUNDS pp pp pp
0.0000000000000000e+00 6.7183847655300291e+00
0.0000000000000000e+00 6.7183847655300291e+00
0.0000000000000000e+00 6.7183847655300291e+00
ITEM: ATOMS id type xs ys zs
1 1 0.0321127 0.121809 0.306717
2 1 0.547869 0.463727 0.373551
3 1 0.0125178 0.271964 0.332232
ITEM: TIMESTEP
270
ITEM: NUMBER OF ATOMS
3
ITEM: BOX BOUNDS pp pp pp
0.0000000000000000e+00 6.7183847655300291e+00
0.0000000000000000e+00 6.7183847655300291e+00
0.0000000000000000e+00 6.7183847655300291e+00
ITEM: ATOMS id type xs ys zs
1 1 0.031568 0.113706 0.307875
2 1 0.555863 0.456661 0.380322
3 1 0.00506919 0.287133 0.324303
ITEM: TIMESTEP
280
ITEM: NUMBER OF ATOMS
3
ITEM: BOX BOUNDS pp pp pp
0.0000000000000000e+00 6.7183847655300291e+00
0.0000000000000000e+00 6.7183847655300291e+00
0.0000000000000000e+00 6.7183847655300291e+00
ITEM: ATOMS id type xs ys zs
1 1 0.0309597 0.105987 0.309052
2 1 0.563856 0.449594 0.387093
3 1 0.997684 0.301919 0.316355
ITEM: TIMESTEP
290
ITEM: NUMBER OF ATOMS
3
ITEM: BOX BOUNDS pp pp pp
0.0000000000000000e+00 6.7183847655300291e+00
0.0000000000000000e+00 6.7183847655300291e+00
0.0000000000000000e+00 6.7183847655300291e+00
ITEM: ATOMS id type xs ys zs
1 1 0.0302273 0.0990032 0.31026
2 1 0.571849 0.442527 0.393864
3 1 0.990423 0.315969 0.308376
ITEM: TIMESTEP
300
ITEM: NUMBER OF ATOMS
3
ITEM: BOX BOUNDS pp pp pp
0.0000000000000000e+00 6.7183847655300291e+00
0.0000000000000000e+00 6.7183847655300291e+00
0.0000000000000000e+00 6.7183847655300291e+00
ITEM: ATOMS id type xs ys zs
1 1 0.0294105 0.092483 0.311466
2 1 0.579843 0.435461 0.400635
3 1 0.983247 0.329556 0.300399
ITEM: TIMESTEP
310
ITEM: NUMBER OF ATOMS
3
ITEM: BOX BOUNDS pp pp pp
0.0000000000000000e+00 6.7183847655300291e+00
0.0000000000000000e+00 6.7183847655300291e+00
0.0000000000000000e+00 6.7183847655300291e+00
ITEM: ATOMS id type xs ys zs
1 1 0.0285417 0.0862311 0.31266
2 1 0.587836 0.428394 0.407406
3 1 0.976122 0.342875 0.292434
ITEM: TIMESTEP
320
ITEM: NUMBER OF ATOMS
3
ITEM: BOX BOUNDS pp pp pp
0.0000000000000000e+00 6.7183847655300291e+00
0.0000000000000000e+00 6.7183847655300291e+00
0.0000000000000000e+00 6.7183847655300291e+00
ITEM: ATOMS id type xs ys zs
1 1 0.0276411 0.0801357 0.313842
2 1 0.595829 0.421328 0.414177
3 1 0.969029 0.356037 0.284481
ITEM: TIMESTEP
330
ITEM: NUMBER OF ATOMS
3
ITEM: BOX BOUNDS pp pp pp
0.0000000000000000e+00 6.7183847655300291e+00
0.0000000000000000e+00 6.7183847655300291e+00
0.0000000000000000e+00 6.7183847655300291e+00
ITEM: ATOMS id type xs ys zs
1 1 0.0267207 0.0741338 0.315015
2 1 0.603823 0.414261 0.420948
3 1 0.961957 0.369105 0.276537
ITEM: TIMESTEP
340
ITEM: NUMBER OF ATOMS
3
ITEM: BOX BOUNDS pp pp pp
0.0000000000000000e+00 6.7183847655300291e+00
0.0000000000000000e+00 6.7183847655300291e+00
0.0000000000000000e+00 6.7183847655300291e+00
ITEM: ATOMS id type xs ys zs
1 1 0.0257877 0.0681893 0.31618
2 1 0.611816 0.407194 0.427719
3 1 0.954896 0.382116 0.268601
ITEM: TIMESTEP
350
ITEM: NUMBER OF ATOMS
3
ITEM: BOX BOUNDS pp pp pp
0.0000000000000000e+00 6.7183847655300291e+00
0.0000000000000000e+00 6.7183847655300291e+00
0.0000000000000000e+00 6.7183847655300291e+00
ITEM: ATOMS id type xs ys zs
1 1 0.0248466 0.062281 0.31734
2 1 0.619809 0.400128 0.43449
3 1 0.947844 0.395091 0.26067
ITEM: TIMESTEP
360
ITEM: NUMBER OF ATOMS
3
ITEM: BOX BOUNDS pp pp pp
0.0000000000000000e+00 6.7183847655300291e+00
0.0000000000000000e+00 6.7183847655300291e+00
0.0000000000000000e+00 6.7183847655300291e+00
ITEM: ATOMS id type xs ys zs
1 1 0.0239001 0.056396 0.318496
2 1 0.627811 0.393061 0.441256
3 1 0.940788 0.408043 0.252748
ITEM: TIMESTEP
370
ITEM: NUMBER OF ATOMS
3
ITEM: BOX BOUNDS pp pp pp
0.0000000000000000e+00 6.7183847655300291e+00
0.0000000000000000e+00 6.7183847655300291e+00
0.0000000000000000e+00 6.7183847655300291e+00
ITEM: ATOMS id type xs ys zs
1 1 0.0229508 0.050523 0.319649
2 1 0.635827 0.385995 0.448014
3 1 0.933722 0.420982 0.244837
ITEM: TIMESTEP
380
ITEM: NUMBER OF ATOMS
3
ITEM: BOX BOUNDS pp pp pp
0.0000000000000000e+00 6.7183847655300291e+00
0.0000000000000000e+00 6.7183847655300291e+00
0.0000000000000000e+00 6.7183847655300291e+00
ITEM: ATOMS id type xs ys zs
1 1 0.0220013 0.0446504 0.320803
2 1 0.643858 0.378931 0.454762
3 1 0.926641 0.433919 0.236935
ITEM: TIMESTEP
390
ITEM: NUMBER OF ATOMS
3
ITEM: BOX BOUNDS pp pp pp
0.0000000000000000e+00 6.7183847655300291e+00
0.0000000000000000e+00 6.7183847655300291e+00
0.0000000000000000e+00 6.7183847655300291e+00
ITEM: ATOMS id type xs ys zs
1 1 0.0210519 0.0387778 0.321957
2 1 0.651902 0.37187 0.4615
3 1 0.919546 0.446853 0.229044
ITEM: TIMESTEP
400
ITEM: NUMBER OF ATOMS
3
ITEM: BOX BOUNDS pp pp pp
0.0000000000000000e+00 6.7183847655300291e+00
0.0000000000000000e+00 6.7183847655300291e+00
0.0000000000000000e+00 6.7183847655300291e+00
ITEM: ATOMS id type xs ys zs
1 1 0.0201025 0.0329052 0.32311
2 1 0.659959 0.364812 0.468226
3 1 0.912439 0.459783 0.221164
ITEM: TIMESTEP
410
ITEM: NUMBER OF ATOMS
3
ITEM: BOX BOUNDS pp pp pp
0.0000000000000000e+00 6.7183847655300291e+00
0.0000000000000000e+00 6.7183847655300291e+00
0.0000000000000000e+00 6.7183847655300291e+00
ITEM: ATOMS id type xs ys zs
1 1 0.0191531 0.0270326 0.324264
2 1 0.668027 0.357758 0.474941
3 1 0.90532 0.47271 0.213295
ITEM: TIMESTEP
420
ITEM: NUMBER OF ATOMS
3
ITEM: BOX BOUNDS pp pp pp
0.0000000000000000e+00 6.7183847655300291e+00
0.0000000000000000e+00 6.7183847655300291e+00
0.0000000000000000e+00 6.7183847655300291e+00
ITEM: ATOMS id type xs ys zs
1 1 0.0182037 0.02116 0.325417
2 1 0.676101 0.350707 0.48165
3 1 0.898196 0.485633 0.205432
ITEM: TIMESTEP
430
ITEM: NUMBER OF ATOMS
3
ITEM: BOX BOUNDS pp pp pp
0.0000000000000000e+00 6.7183847655300291e+00
0.0000000000000000e+00 6.7183847655300291e+00
0.0000000000000000e+00 6.7183847655300291e+00
ITEM: ATOMS id type xs ys zs
1 1 0.0172542 0.0152874 0.326571
2 1 0.684175 0.343655 0.48836
3 1 0.891071 0.498557 0.197569
ITEM: TIMESTEP
440
ITEM: NUMBER OF ATOMS
3
ITEM: BOX BOUNDS pp pp pp
0.0000000000000000e+00 6.7183847655300291e+00
0.0000000000000000e+00 6.7183847655300291e+00
0.0000000000000000e+00 6.7183847655300291e+00
ITEM: ATOMS id type xs ys zs
1 1 0.0163048 0.00941476 0.327724
2 1 0.692248 0.336604 0.495069
3 1 0.883947 0.511481 0.189707
ITEM: TIMESTEP
450
ITEM: NUMBER OF ATOMS
3
ITEM: BOX BOUNDS pp pp pp
0.0000000000000000e+00 6.7183847655300291e+00
0.0000000000000000e+00 6.7183847655300291e+00
0.0000000000000000e+00 6.7183847655300291e+00
ITEM: ATOMS id type xs ys zs
1 1 0.0153554 0.00354216 0.328878
2 1 0.700322 0.329553 0.501778
3 1 0.876823 0.524405 0.181844
ITEM: TIMESTEP
460
ITEM: NUMBER OF ATOMS
3
ITEM: BOX BOUNDS pp pp pp
0.0000000000000000e+00 6.7183847655300291e+00
0.0000000000000000e+00 6.7183847655300291e+00
0.0000000000000000e+00 6.7183847655300291e+00
ITEM: ATOMS id type xs ys zs
1 1 0.014406 0.99767 0.330032
2 1 0.708396 0.322502 0.508488
3 1 0.869698 0.537329 0.173981
ITEM: TIMESTEP
470
ITEM: NUMBER OF ATOMS
3
ITEM: BOX BOUNDS pp pp pp
0.0000000000000000e+00 6.7183847655300291e+00
0.0000000000000000e+00 6.7183847655300291e+00
0.0000000000000000e+00 6.7183847655300291e+00
ITEM: ATOMS id type xs ys zs
1 1 0.0134565 0.991797 0.331185
2 1 0.71647 0.31545 0.515197
3 1 0.862574 0.550253 0.166118
ITEM: TIMESTEP
480
ITEM: NUMBER OF ATOMS
3
ITEM: BOX BOUNDS pp pp pp
0.0000000000000000e+00 6.7183847655300291e+00
0.0000000000000000e+00 6.7183847655300291e+00
0.0000000000000000e+00 6.7183847655300291e+00
ITEM: ATOMS id type xs ys zs
1 1 0.0125071 0.985924 0.332339
2 1 0.724543 0.308399 0.521907
3 1 0.85545 0.563176 0.158255
ITEM: TIMESTEP
490
ITEM: NUMBER OF ATOMS
3
ITEM: BOX BOUNDS pp pp pp
0.0000000000000000e+00 6.7183847655300291e+00
0.0000000000000000e+00 6.7183847655300291e+00
0.0000000000000000e+00 6.7183847655300291e+00
ITEM: ATOMS id type xs ys zs
1 1 0.0115577 0.980052 0.333492
2 1 0.732617 0.301348 0.528616
3 1 0.848325 0.5761 0.150392
ITEM: TIMESTEP
500
ITEM: NUMBER OF ATOMS
3
ITEM: BOX BOUNDS pp pp pp
0.0000000000000000e+00 6.7183847655300291e+00
0.0000000000000000e+00 6.7183847655300291e+00
0.0000000000000000e+00 6.7183847655300291e+00
ITEM: ATOMS id type xs ys zs
1 1 0.0106083 0.974179 0.334646
2 1 0.740691 0.294297 0.535325
3 1 0.841201 0.589024 0.142529
ITEM: TIMESTEP
510
ITEM: NUMBER OF ATOMS
3
ITEM: BOX BOUNDS pp pp pp
0.0000000000000000e+00 6.7183847655300291e+00
0.0000000000000000e+00 6.7183847655300291e+00
0.0000000000000000e+00 6.7183847655300291e+00
ITEM: ATOMS id type xs ys zs
1 1 0.00965884 0.968307 0.335799
2 1 0.748765 0.287245 0.542035
3 1 0.834077 0.601948 0.134666
ITEM: TIMESTEP
520
ITEM: NUMBER OF ATOMS
3
ITEM: BOX BOUNDS pp pp pp
0.0000000000000000e+00 6.7183847655300291e+00
0.0000000000000000e+00 6.7183847655300291e+00
0.0000000000000000e+00 6.7183847655300291e+00
ITEM: ATOMS id type xs ys zs
1 1 0.00870941 0.962434 0.336953
2 1 0.756838 0.280194 0.548744
3 1 0.826952 0.614872 0.126803
ITEM: TIMESTEP
530
ITEM: NUMBER OF ATOMS
3
ITEM: BOX BOUNDS pp pp pp
0.0000000000000000e+00 6.7183847655300291e+00
0.0000000000000000e+00 6.7183847655300291e+00
0.0000000000000000e+00 6.7183847655300291e+00
ITEM: ATOMS id type xs ys zs
1 1 0.00775999 0.956561 0.338107
2 1 0.764912 0.273143 0.555454
3 1 0.819828 0.627796 0.11894
ITEM: TIMESTEP
540
ITEM: NUMBER OF ATOMS
3
ITEM: BOX BOUNDS pp pp pp
0.0000000000000000e+00 6.7183847655300291e+00
0.0000000000000000e+00 6.7183847655300291e+00
0.0000000000000000e+00 6.7183847655300291e+00
ITEM: ATOMS id type xs ys zs
1 1 0.00681057 0.950689 0.33926
2 1 0.772986 0.266092 0.562163
3 1 0.812704 0.64072 0.111077
ITEM: TIMESTEP
550
ITEM: NUMBER OF ATOMS
3
ITEM: BOX BOUNDS pp pp pp
0.0000000000000000e+00 6.7183847655300291e+00
0.0000000000000000e+00 6.7183847655300291e+00
0.0000000000000000e+00 6.7183847655300291e+00
ITEM: ATOMS id type xs ys zs
1 1 0.00586114 0.944816 0.340414
2 1 0.78106 0.25904 0.568872
3 1 0.805579 0.653643 0.103214
ITEM: TIMESTEP
560
ITEM: NUMBER OF ATOMS
3
ITEM: BOX BOUNDS pp pp pp
0.0000000000000000e+00 6.7183847655300291e+00
0.0000000000000000e+00 6.7183847655300291e+00
0.0000000000000000e+00 6.7183847655300291e+00
ITEM: ATOMS id type xs ys zs
1 1 0.00491172 0.938944 0.341567
2 1 0.789133 0.251989 0.575582
3 1 0.798455 0.666567 0.095351
ITEM: TIMESTEP
570
ITEM: NUMBER OF ATOMS
3
ITEM: BOX BOUNDS pp pp pp
0.0000000000000000e+00 6.7183847655300291e+00
0.0000000000000000e+00 6.7183847655300291e+00
0.0000000000000000e+00 6.7183847655300291e+00
ITEM: ATOMS id type xs ys zs
1 1 0.00396229 0.933071 0.342721
2 1 0.797207 0.244938 0.582291
3 1 0.791331 0.679491 0.087488
ITEM: TIMESTEP
580
ITEM: NUMBER OF ATOMS
3
ITEM: BOX BOUNDS pp pp pp
0.0000000000000000e+00 6.7183847655300291e+00
0.0000000000000000e+00 6.7183847655300291e+00
0.0000000000000000e+00 6.7183847655300291e+00
ITEM: ATOMS id type xs ys zs
1 1 0.00301287 0.927198 0.343875
2 1 0.805281 0.237887 0.589
3 1 0.784206 0.692415 0.079625
ITEM: TIMESTEP
590
ITEM: NUMBER OF ATOMS
3
ITEM: BOX BOUNDS pp pp pp
0.0000000000000000e+00 6.7183847655300291e+00
0.0000000000000000e+00 6.7183847655300291e+00
0.0000000000000000e+00 6.7183847655300291e+00
ITEM: ATOMS id type xs ys zs
1 1 0.00206345 0.921326 0.345028
2 1 0.813355 0.230835 0.59571
3 1 0.777082 0.705339 0.0717621
ITEM: TIMESTEP
600
ITEM: NUMBER OF ATOMS
3
ITEM: BOX BOUNDS pp pp pp
0.0000000000000000e+00 6.7183847655300291e+00
0.0000000000000000e+00 6.7183847655300291e+00
0.0000000000000000e+00 6.7183847655300291e+00
ITEM: ATOMS id type xs ys zs
1 1 0.00111402 0.915453 0.346182
2 1 0.821428 0.223784 0.602419
3 1 0.769958 0.718263 0.0638991
ITEM: TIMESTEP
610
ITEM: NUMBER OF ATOMS
3
ITEM: BOX BOUNDS pp pp pp
0.0000000000000000e+00 6.7183847655300291e+00
0.0000000000000000e+00 6.7183847655300291e+00
0.0000000000000000e+00 6.7183847655300291e+00
ITEM: ATOMS id type xs ys zs
1 1 0.000164598 0.909581 0.347335
2 1 0.829502 0.216733 0.609129
3 1 0.762833 0.731187 0.0560362
ITEM: TIMESTEP
620
ITEM: NUMBER OF ATOMS
3
ITEM: BOX BOUNDS pp pp pp
0.0000000000000000e+00 6.7183847655300291e+00
0.0000000000000000e+00 6.7183847655300291e+00
0.0000000000000000e+00 6.7183847655300291e+00
ITEM: ATOMS id type xs ys zs
1 1 0.999215 0.903708 0.348489
2 1 0.837576 0.209682 0.615838
3 1 0.755709 0.74411 0.0481732
ITEM: TIMESTEP
630
ITEM: NUMBER OF ATOMS
3
ITEM: BOX BOUNDS pp pp pp
0.0000000000000000e+00 6.7183847655300291e+00
0.0000000000000000e+00 6.7183847655300291e+00
0.0000000000000000e+00 6.7183847655300291e+00
ITEM: ATOMS id type xs ys zs
1 1 0.998266 0.897835 0.349642
2 1 0.84565 0.20263 0.622547
3 1 0.748584 0.757034 0.0403102
ITEM: TIMESTEP
640
ITEM: NUMBER OF ATOMS
3
ITEM: BOX BOUNDS pp pp pp
0.0000000000000000e+00 6.7183847655300291e+00
0.0000000000000000e+00 6.7183847655300291e+00
0.0000000000000000e+00 6.7183847655300291e+00
ITEM: ATOMS id type xs ys zs
1 1 0.997316 0.891963 0.350796
2 1 0.853724 0.195579 0.629257
3 1 0.74146 0.769958 0.0324473
ITEM: TIMESTEP
650
ITEM: NUMBER OF ATOMS
3
ITEM: BOX BOUNDS pp pp pp
0.0000000000000000e+00 6.7183847655300291e+00
0.0000000000000000e+00 6.7183847655300291e+00
0.0000000000000000e+00 6.7183847655300291e+00
ITEM: ATOMS id type xs ys zs
1 1 0.996367 0.88609 0.35195
2 1 0.861797 0.188528 0.635966
3 1 0.734336 0.782882 0.0245843
ITEM: TIMESTEP
660
ITEM: NUMBER OF ATOMS
3
ITEM: BOX BOUNDS pp pp pp
0.0000000000000000e+00 6.7183847655300291e+00
0.0000000000000000e+00 6.7183847655300291e+00
0.0000000000000000e+00 6.7183847655300291e+00
ITEM: ATOMS id type xs ys zs
1 1 0.995417 0.880217 0.353103
2 1 0.869871 0.181477 0.642675
3 1 0.727211 0.795806 0.0167213
ITEM: TIMESTEP
670
ITEM: NUMBER OF ATOMS
3
ITEM: BOX BOUNDS pp pp pp
0.0000000000000000e+00 6.7183847655300291e+00
0.0000000000000000e+00 6.7183847655300291e+00
0.0000000000000000e+00 6.7183847655300291e+00
ITEM: ATOMS id type xs ys zs
1 1 0.994468 0.874345 0.354257
2 1 0.877945 0.174425 0.649385
3 1 0.720087 0.80873 0.00885839
ITEM: TIMESTEP
680
ITEM: NUMBER OF ATOMS
3
ITEM: BOX BOUNDS pp pp pp
0.0000000000000000e+00 6.7183847655300291e+00
0.0000000000000000e+00 6.7183847655300291e+00
0.0000000000000000e+00 6.7183847655300291e+00
ITEM: ATOMS id type xs ys zs
1 1 0.993519 0.868472 0.35541
2 1 0.886019 0.167374 0.656094
3 1 0.712963 0.821654 0.000995425
ITEM: TIMESTEP
690
ITEM: NUMBER OF ATOMS
3
ITEM: BOX BOUNDS pp pp pp
0.0000000000000000e+00 6.7183847655300291e+00
0.0000000000000000e+00 6.7183847655300291e+00
0.0000000000000000e+00 6.7183847655300291e+00
ITEM: ATOMS id type xs ys zs
1 1 0.992569 0.8626 0.356564
2 1 0.894092 0.160323 0.662804
3 1 0.705838 0.834577 -0.00686754
ITEM: TIMESTEP
700
ITEM: NUMBER OF ATOMS
3
ITEM: BOX BOUNDS pp pp pp
0.0000000000000000e+00 6.7183847655300291e+00
0.0000000000000000e+00 6.7183847655300291e+00
0.0000000000000000e+00 6.7183847655300291e+00
ITEM: ATOMS id type xs ys zs
1 1 0.99162 0.856727 0.357718
2 1 0.902166 0.153272 0.669513
3 1 0.698714 0.847501 0.98527
ITEM: TIMESTEP
710
ITEM: NUMBER OF ATOMS
3
ITEM: BOX BOUNDS pp pp pp
0.0000000000000000e+00 6.7183847655300291e+00
0.0000000000000000e+00 6.7183847655300291e+00
0.0000000000000000e+00 6.7183847655300291e+00
ITEM: ATOMS id type xs ys zs
1 1 0.99067 0.850854 0.358871
2 1 0.91024 0.14622 0.676222
3 1 0.69159 0.860425 0.977407
ITEM: TIMESTEP
720
ITEM: NUMBER OF ATOMS
3
ITEM: BOX BOUNDS pp pp pp
0.0000000000000000e+00 6.7183847655300291e+00
0.0000000000000000e+00 6.7183847655300291e+00
0.0000000000000000e+00 6.7183847655300291e+00
ITEM: ATOMS id type xs ys zs
1 1 0.989721 0.844982 0.360025
2 1 0.918314 0.139169 0.682932
3 1 0.684465 0.873349 0.969544
ITEM: TIMESTEP
730
ITEM: NUMBER OF ATOMS
3
ITEM: BOX BOUNDS pp pp pp
0.0000000000000000e+00 6.7183847655300291e+00
0.0000000000000000e+00 6.7183847655300291e+00
0.0000000000000000e+00 6.7183847655300291e+00
ITEM: ATOMS id type xs ys zs
1 1 0.988772 0.839109 0.361178
2 1 0.926387 0.132118 0.689641
3 1 0.677341 0.886273 0.961681
ITEM: TIMESTEP
740
ITEM: NUMBER OF ATOMS
3
ITEM: BOX BOUNDS pp pp pp
0.0000000000000000e+00 6.7183847655300291e+00
0.0000000000000000e+00 6.7183847655300291e+00
0.0000000000000000e+00 6.7183847655300291e+00
ITEM: ATOMS id type xs ys zs
1 1 0.987822 0.833237 0.362332
2 1 0.934461 0.125067 0.696351
3 1 0.670217 0.899197 0.953818
ITEM: TIMESTEP
750
ITEM: NUMBER OF ATOMS
3
ITEM: BOX BOUNDS pp pp pp
0.0000000000000000e+00 6.7183847655300291e+00
0.0000000000000000e+00 6.7183847655300291e+00
0.0000000000000000e+00 6.7183847655300291e+00
ITEM: ATOMS id type xs ys zs
1 1 0.986873 0.827364 0.363485
2 1 0.942535 0.118015 0.70306
3 1 0.663092 0.912121 0.945955
ITEM: TIMESTEP
760
ITEM: NUMBER OF ATOMS
3
ITEM: BOX BOUNDS pp pp pp
0.0000000000000000e+00 6.7183847655300291e+00
0.0000000000000000e+00 6.7183847655300291e+00
0.0000000000000000e+00 6.7183847655300291e+00
ITEM: ATOMS id type xs ys zs
1 1 0.985923 0.821491 0.364639
2 1 0.950609 0.110964 0.709769
3 1 0.655968 0.925044 0.938092
ITEM: TIMESTEP
770
ITEM: NUMBER OF ATOMS
3
ITEM: BOX BOUNDS pp pp pp
0.0000000000000000e+00 6.7183847655300291e+00
0.0000000000000000e+00 6.7183847655300291e+00
0.0000000000000000e+00 6.7183847655300291e+00
ITEM: ATOMS id type xs ys zs
1 1 0.984974 0.815619 0.365793
2 1 0.958682 0.103913 0.716479
3 1 0.648844 0.937968 0.930229
ITEM: TIMESTEP
780
ITEM: NUMBER OF ATOMS
3
ITEM: BOX BOUNDS pp pp pp
0.0000000000000000e+00 6.7183847655300291e+00
0.0000000000000000e+00 6.7183847655300291e+00
0.0000000000000000e+00 6.7183847655300291e+00
ITEM: ATOMS id type xs ys zs
1 1 0.984024 0.809746 0.366946
2 1 0.966756 0.0968616 0.723188
3 1 0.641719 0.950892 0.922366
ITEM: TIMESTEP
790
ITEM: NUMBER OF ATOMS
3
ITEM: BOX BOUNDS pp pp pp
0.0000000000000000e+00 6.7183847655300291e+00
0.0000000000000000e+00 6.7183847655300291e+00
0.0000000000000000e+00 6.7183847655300291e+00
ITEM: ATOMS id type xs ys zs
1 1 0.983075 0.803874 0.3681
2 1 0.97483 0.0898103 0.729897
3 1 0.634595 0.963816 0.914503
ITEM: TIMESTEP
800
ITEM: NUMBER OF ATOMS
3
ITEM: BOX BOUNDS pp pp pp
0.0000000000000000e+00 6.7183847655300291e+00
0.0000000000000000e+00 6.7183847655300291e+00
0.0000000000000000e+00 6.7183847655300291e+00
ITEM: ATOMS id type xs ys zs
1 1 0.982126 0.798001 0.369253
2 1 0.982904 0.0827591 0.736607
3 1 0.627471 0.97674 0.90664
ITEM: TIMESTEP
810
ITEM: NUMBER OF ATOMS
3
ITEM: BOX BOUNDS pp pp pp
0.0000000000000000e+00 6.7183847655300291e+00
0.0000000000000000e+00 6.7183847655300291e+00
0.0000000000000000e+00 6.7183847655300291e+00
ITEM: ATOMS id type xs ys zs
1 1 0.981176 0.792128 0.370407
2 1 0.990977 0.0757078 0.743316
3 1 0.620346 0.989664 0.898777
ITEM: TIMESTEP
820
ITEM: NUMBER OF ATOMS
3
ITEM: BOX BOUNDS pp pp pp
0.0000000000000000e+00 6.7183847655300291e+00
0.0000000000000000e+00 6.7183847655300291e+00
0.0000000000000000e+00 6.7183847655300291e+00
ITEM: ATOMS id type xs ys zs
1 1 0.980227 0.786256 0.37156
2 1 0.999051 0.0686566 0.750026
3 1 0.613222 0.00258758 0.890914
ITEM: TIMESTEP
830
ITEM: NUMBER OF ATOMS
3
ITEM: BOX BOUNDS pp pp pp
0.0000000000000000e+00 6.7183847655300291e+00
0.0000000000000000e+00 6.7183847655300291e+00
0.0000000000000000e+00 6.7183847655300291e+00
ITEM: ATOMS id type xs ys zs
1 1 0.979277 0.780383 0.372714
2 1 1.00712 0.0616053 0.756735
3 1 0.606098 0.0155114 0.883051
ITEM: TIMESTEP
840
ITEM: NUMBER OF ATOMS
3
ITEM: BOX BOUNDS pp pp pp
0.0000000000000000e+00 6.7183847655300291e+00
0.0000000000000000e+00 6.7183847655300291e+00
0.0000000000000000e+00 6.7183847655300291e+00
ITEM: ATOMS id type xs ys zs
1 1 0.978328 0.774511 0.373868
2 1 0.0151987 0.0545541 0.763444
3 1 0.598973 0.0284353 0.875188
ITEM: TIMESTEP
850
ITEM: NUMBER OF ATOMS
3
ITEM: BOX BOUNDS pp pp pp
0.0000000000000000e+00 6.7183847655300291e+00
0.0000000000000000e+00 6.7183847655300291e+00
0.0000000000000000e+00 6.7183847655300291e+00
ITEM: ATOMS id type xs ys zs
1 1 0.977378 0.768638 0.375021
2 1 0.0232724 0.0475028 0.770154
3 1 0.591849 0.0413591 0.867325
ITEM: TIMESTEP
860
ITEM: NUMBER OF ATOMS
3
ITEM: BOX BOUNDS pp pp pp
0.0000000000000000e+00 6.7183847655300291e+00
0.0000000000000000e+00 6.7183847655300291e+00
0.0000000000000000e+00 6.7183847655300291e+00
ITEM: ATOMS id type xs ys zs
1 1 0.976429 0.762765 0.376175
2 1 0.0313462 0.0404516 0.776863
3 1 0.584725 0.054283 0.859462
ITEM: TIMESTEP
870
ITEM: NUMBER OF ATOMS
3
ITEM: BOX BOUNDS pp pp pp
0.0000000000000000e+00 6.7183847655300291e+00
0.0000000000000000e+00 6.7183847655300291e+00
0.0000000000000000e+00 6.7183847655300291e+00
ITEM: ATOMS id type xs ys zs
1 1 0.97548 0.756893 0.377328
2 1 0.0394199 0.0334003 0.783572
3 1 0.5776 0.0672069 0.851599
ITEM: TIMESTEP
880
ITEM: NUMBER OF ATOMS
3
ITEM: BOX BOUNDS pp pp pp
0.0000000000000000e+00 6.7183847655300291e+00
0.0000000000000000e+00 6.7183847655300291e+00
0.0000000000000000e+00 6.7183847655300291e+00
ITEM: ATOMS id type xs ys zs
1 1 0.97453 0.75102 0.378482
2 1 0.0474937 0.0263491 0.790282
3 1 0.570476 0.0801307 0.843736
ITEM: TIMESTEP
890
ITEM: NUMBER OF ATOMS
3
ITEM: BOX BOUNDS pp pp pp
0.0000000000000000e+00 6.7183847655300291e+00
0.0000000000000000e+00 6.7183847655300291e+00
0.0000000000000000e+00 6.7183847655300291e+00
ITEM: ATOMS id type xs ys zs
1 1 0.973581 0.745148 0.379636
2 1 0.0555674 0.0192978 0.796991
3 1 0.563352 0.0930546 0.835873
ITEM: TIMESTEP
900
ITEM: NUMBER OF ATOMS
3
ITEM: BOX BOUNDS pp pp pp
0.0000000000000000e+00 6.7183847655300291e+00
0.0000000000000000e+00 6.7183847655300291e+00
0.0000000000000000e+00 6.7183847655300291e+00
ITEM: ATOMS id type xs ys zs
1 1 0.972631 0.739275 0.380789
2 1 0.0636412 0.0122466 0.803701
3 1 0.556227 0.105978 0.82801
ITEM: TIMESTEP
910
ITEM: NUMBER OF ATOMS
3
ITEM: BOX BOUNDS pp pp pp
0.0000000000000000e+00 6.7183847655300291e+00
0.0000000000000000e+00 6.7183847655300291e+00
0.0000000000000000e+00 6.7183847655300291e+00
ITEM: ATOMS id type xs ys zs
1 1 0.971682 0.733402 0.381943
2 1 0.071715 0.00519531 0.81041
3 1 0.549103 0.118902 0.820147
ITEM: TIMESTEP
920
ITEM: NUMBER OF ATOMS
3
ITEM: BOX BOUNDS pp pp pp
0.0000000000000000e+00 6.7183847655300291e+00
0.0000000000000000e+00 6.7183847655300291e+00
0.0000000000000000e+00 6.7183847655300291e+00
ITEM: ATOMS id type xs ys zs
1 1 0.970732 0.72753 0.383096
2 1 0.0797887 0.998144 0.817119
3 1 0.541979 0.131826 0.812284
ITEM: TIMESTEP
930
ITEM: NUMBER OF ATOMS
3
ITEM: BOX BOUNDS pp pp pp
0.0000000000000000e+00 6.7183847655300291e+00
0.0000000000000000e+00 6.7183847655300291e+00
0.0000000000000000e+00 6.7183847655300291e+00
ITEM: ATOMS id type xs ys zs
1 1 0.969783 0.721657 0.38425
2 1 0.0878625 0.991093 0.823829
3 1 0.534854 0.14475 0.804421
ITEM: TIMESTEP
940
ITEM: NUMBER OF ATOMS
3
ITEM: BOX BOUNDS pp pp pp
0.0000000000000000e+00 6.7183847655300291e+00
0.0000000000000000e+00 6.7183847655300291e+00
0.0000000000000000e+00 6.7183847655300291e+00
ITEM: ATOMS id type xs ys zs
1 1 0.968834 0.715785 0.385403
2 1 0.0959362 0.984042 0.830538
3 1 0.52773 0.157674 0.796558
ITEM: TIMESTEP
950
ITEM: NUMBER OF ATOMS
3
ITEM: BOX BOUNDS pp pp pp
0.0000000000000000e+00 6.7183847655300291e+00
0.0000000000000000e+00 6.7183847655300291e+00
0.0000000000000000e+00 6.7183847655300291e+00
ITEM: ATOMS id type xs ys zs
1 1 0.967884 0.709912 0.386557
2 1 0.10401 0.97699 0.837248
3 1 0.520606 0.170598 0.788695
ITEM: TIMESTEP
960
ITEM: NUMBER OF ATOMS
3
ITEM: BOX BOUNDS pp pp pp
0.0000000000000000e+00 6.7183847655300291e+00
0.0000000000000000e+00 6.7183847655300291e+00
0.0000000000000000e+00 6.7183847655300291e+00
ITEM: ATOMS id type xs ys zs
1 1 0.966935 0.704039 0.387711
2 1 0.112084 0.969939 0.843957
3 1 0.513481 0.183522 0.780832
ITEM: TIMESTEP
970
ITEM: NUMBER OF ATOMS
3
ITEM: BOX BOUNDS pp pp pp
0.0000000000000000e+00 6.7183847655300291e+00
0.0000000000000000e+00 6.7183847655300291e+00
0.0000000000000000e+00 6.7183847655300291e+00
ITEM: ATOMS id type xs ys zs
1 1 0.965985 0.698167 0.388864
2 1 0.120158 0.962888 0.850666
3 1 0.506357 0.196445 0.77297
ITEM: TIMESTEP
980
ITEM: NUMBER OF ATOMS
3
ITEM: BOX BOUNDS pp pp pp
0.0000000000000000e+00 6.7183847655300291e+00
0.0000000000000000e+00 6.7183847655300291e+00
0.0000000000000000e+00 6.7183847655300291e+00
ITEM: ATOMS id type xs ys zs
1 1 0.965036 0.692294 0.390018
2 1 0.128231 0.955837 0.857376
3 1 0.499233 0.209369 0.765107
ITEM: TIMESTEP
990
ITEM: NUMBER OF ATOMS
3
ITEM: BOX BOUNDS pp pp pp
0.0000000000000000e+00 6.7183847655300291e+00
0.0000000000000000e+00 6.7183847655300291e+00
0.0000000000000000e+00 6.7183847655300291e+00
ITEM: ATOMS id type xs ys zs
1 1 0.964086 0.686422 0.391171
2 1 0.136305 0.948785 0.864085
3 1 0.492108 0.222293 0.757244
ITEM: TIMESTEP
1000
ITEM: NUMBER OF ATOMS
3
ITEM: BOX BOUNDS pp pp pp
0.0000000000000000e+00 6.7183847655300291e+00
0.0000000000000000e+00 6.7183847655300291e+00
0.0000000000000000e+00 6.7183847655300291e+00
ITEM: ATOMS id type xs ys zs
1 1 0.963137 0.680549 0.392325
3 1 0.484984 0.235217 0.749381
2 1 0.144379 0.941734 0.870794