ITEM: TIMESTEP
100
ITEM: NUMBER OF ATOMS
3
ITEM: BOX BOUNDS pp pp pp
0.0000000000000000e+00 6.7183847655300291e+00
0.0000000000000000e+00 6.7183847655300291e+00
0.0000000000000000e+00 6.7183847655300291e+00
ITEM: ATOMS id type xs ys zs
3 1 0.24009 0.37852 0.00387972
2 1 0.676685 0.754317 0.00826376
1 1 0.810726 0.659663 0.317857
ITEM: TIMESTEP
110
ITEM: NUMBER OF ATOMS
3
ITEM: BOX BOUNDS pp pp pp
0.0000000000000000e+00 6.7183847655300291e+00
0.0000000000000000e+00 6.7183847655300291e+00
0.0000000000000000e+00 6.7183847655300291e+00
ITEM: ATOMS id type xs ys zs
3 1 0.238349 0.371122 -0.00173231
2 1 0.682135 0.746721 0.00615402
1 1 0.807016 0.674657 0.325578
ITEM: TIMESTEP
120
ITEM: NUMBER OF ATOMS
3
ITEM: BOX BOUNDS pp pp pp
0.0000000000000000e+00 6.7183847655300291e+00
0.0000000000000000e+00 6.7183847655300291e+00
0.0000000000000000e+00 6.7183847655300291e+00
ITEM: ATOMS id type xs ys zs
3 1 0.236608 0.363724 0.992656
2 1 0.687593 0.73912 0.00406425
1 1 0.803299 0.689655 0.33328
ITEM: TIMESTEP
130
ITEM: NUMBER OF ATOMS
3
ITEM: BOX BOUNDS pp pp pp
0.0000000000000000e+00 6.7183847655300291e+00
0.0000000000000000e+00 6.7183847655300291e+00
0.0000000000000000e+00 6.7183847655300291e+00
ITEM: ATOMS id type xs ys zs
3 1 0.234867 0.356327 0.987044
2 1 0.693059 0.731516 0.00199418
1 1 0.799575 0.704657 0.340962
ITEM: TIMESTEP
140
ITEM: NUMBER OF ATOMS
3
ITEM: BOX BOUNDS pp pp pp
0.0000000000000000e+00 6.7183847655300291e+00
0.0000000000000000e+00 6.7183847655300291e+00
0.0000000000000000e+00 6.7183847655300291e+00
ITEM: ATOMS id type xs ys zs
3 1 0.233126 0.348929 0.981432
2 1 0.69853 0.723911 0.999943
1 1 0.795845 0.71966 0.348626
ITEM: TIMESTEP
150
ITEM: NUMBER OF ATOMS
3
ITEM: BOX BOUNDS pp pp pp
0.0000000000000000e+00 6.7183847655300291e+00
0.0000000000000000e+00 6.7183847655300291e+00
0.0000000000000000e+00 6.7183847655300291e+00
ITEM: ATOMS id type xs ys zs
3 1 0.231385 0.341531 0.97582
2 1 0.704006 0.716306 0.997908
1 1 0.79211 0.734663 0.356272
ITEM: TIMESTEP
160
ITEM: NUMBER OF ATOMS
3
ITEM: BOX BOUNDS pp pp pp
0.0000000000000000e+00 6.7183847655300291e+00
0.0000000000000000e+00 6.7183847655300291e+00
0.0000000000000000e+00 6.7183847655300291e+00
ITEM: ATOMS id type xs ys zs
3 1 0.229644 0.334133 0.970208
2 1 0.709484 0.708701 0.995885
1 1 0.788372 0.749666 0.363907
ITEM: TIMESTEP
170
ITEM: NUMBER OF ATOMS
3
ITEM: BOX BOUNDS pp pp pp
0.0000000000000000e+00 6.7183847655300291e+00
0.0000000000000000e+00 6.7183847655300291e+00
0.0000000000000000e+00 6.7183847655300291e+00
ITEM: ATOMS id type xs ys zs
3 1 0.227903 0.326735 0.964596
2 1 0.714963 0.701096 0.993864
1 1 0.784634 0.764669 0.371541
ITEM: TIMESTEP
180
ITEM: NUMBER OF ATOMS
3
ITEM: BOX BOUNDS pp pp pp
0.0000000000000000e+00 6.7183847655300291e+00
0.0000000000000000e+00 6.7183847655300291e+00
0.0000000000000000e+00 6.7183847655300291e+00
ITEM: ATOMS id type xs ys zs
3 1 0.226162 0.319337 0.958983
2 1 0.720442 0.693491 0.991842
1 1 0.780896 0.779672 0.379175
ITEM: TIMESTEP
190
ITEM: NUMBER OF ATOMS
3
ITEM: BOX BOUNDS pp pp pp
0.0000000000000000e+00 6.7183847655300291e+00
0.0000000000000000e+00 6.7183847655300291e+00
0.0000000000000000e+00 6.7183847655300291e+00
ITEM: ATOMS id type xs ys zs
3 1 0.224421 0.311939 0.953371
2 1 0.725921 0.685886 0.98982
1 1 0.777158 0.794675 0.386808
ITEM: TIMESTEP
200
ITEM: NUMBER OF ATOMS
3
ITEM: BOX BOUNDS pp pp pp
0.0000000000000000e+00 6.7183847655300291e+00
0.0000000000000000e+00 6.7183847655300291e+00
0.0000000000000000e+00 6.7183847655300291e+00
ITEM: ATOMS id type xs ys zs
3 1 0.22268 0.304541 0.947759
2 1 0.7314 0.678282 0.987798
1 1 0.77342 0.809678 0.394442
